 Gaussian 16, Revision C.01,
 Gaussian 16:  EM64L-G16RevC.01  3-Jul-2019

 ------------------------
 # HF/6-31G* scrf=smd opt
 ------------------------

 ------------------
 Aspartate molecule
 ------------------
 Symbolic Z-matrix:
 Charge =  0 Multiplicity = 1

 SCF Done:  E(RHF) =  -509.491973373     A.U. after   13 cycles
 SCF Done:  E(RHF) =  -509.503167811     A.U. after   13 cycles
 SCF Done:  E(RHF) =  -509.504605038     A.U. after   13 cycles
 SCF Done:  E(RHF) =  -509.501538187     A.U. after   12 cycles
 SCF Done:  E(RHF) =  -509.505342047     A.U. after   12 cycles
 SCF Done:  E(RHF) =  -509.504977457     A.U. after   12 cycles
 SCF Done:  E(RHF) =  -509.505400554     A.U. after   11 cycles
 SCF Done:  E(RHF) =  -509.505444640     A.U. after   12 cycles
 SCF Done:  E(RHF) =  -509.505470871     A.U. after   11 cycles
 SCF Done:  E(RHF) =  -509.505473877     A.U. after   10 cycles
 SCF Done:  E(RHF) =  -509.505475452     A.U. after   10 cycles
 SCF Done:  E(RHF) =  -509.505476655     A.U. after    9 cycles
 SCF Done:  E(RHF) =  -509.505478022     A.U. after   10 cycles
 SCF Done:  E(RHF) =  -509.505478773     A.U. after   10 cycles
 SCF Done:  E(RHF) =  -509.505478781     A.U. after    8 cycles
 SCF Done:  E(RHF) =  -509.505478854     A.U. after    9 cycles
 Optimization completed.
    -- Stationary point found.

                         Standard orientation:
 ---------------------------------------------------------------------
 Center     Atomic      Atomic             Coordinates (Angstroms)
 Number     Number       Type             X           Y           Z
 ---------------------------------------------------------------------
      1          6           0        1.945005   -0.122547    0.043048
      2          8           0        2.223559    0.711988    0.854591
      3          8           0        2.917058   -0.808580   -0.536420
      4          1           0        2.591082   -1.455762   -1.157105
      5          6           0        0.544005   -0.483345   -0.377877
      6          6           0       -0.524136    0.390879    0.284763
      7          1           0        0.406177   -1.530946   -0.128551
      8          1           0        0.478714   -0.398226   -1.457271
      9          7           0       -0.475166    1.740759   -0.240857
     10          1           0        0.385013    2.161785    0.054592
     11          1           0       -1.210682    2.284098    0.172020
     12          6           0       -1.889110   -0.214910    0.004967
     13          1           0       -0.383597    0.347296    1.361518
     14          8           0       -2.684896    0.236069   -0.763292
     15          8           0       -2.189693   -1.320379    0.670639
     16          1           0       -1.523360   -1.566807    1.307245
 ---------------------------------------------------------------------

 The electronic state is 1-A.
 Alpha  occ. eigenvalues --  -20.61838 -20.61833 -20.56312 -20.56213 -15.54459
 Alpha  occ. eigenvalues --  -11.39865 -11.39420 -11.27924 -11.24774  -1.47987
 Alpha  occ. eigenvalues --   -1.47869  -1.37776  -1.37700  -1.20270  -1.04965
 Alpha  occ. eigenvalues --   -0.93409  -0.84665  -0.83266  -0.73370  -0.72467
 Alpha  occ. eigenvalues --   -0.69407  -0.67562  -0.66278  -0.65004  -0.63974
 Alpha  occ. eigenvalues --   -0.61773  -0.58336  -0.56215  -0.53832  -0.53202
 Alpha  occ. eigenvalues --   -0.49167  -0.48822  -0.46910  -0.44991  -0.40631
 Alpha virt. eigenvalues --    0.18020   0.18704   0.22650   0.24428   0.26370
 Alpha virt. eigenvalues --    0.30931   0.32497   0.34699   0.34925   0.39135
 Alpha virt. eigenvalues --    0.40957   0.44921   0.46299   0.50391   0.54457

 Mulliken charges:
               1
     1  C    0.837869
     2  O   -0.644379
     3  O   -0.734841
     4  H    0.528958
     5  C   -0.483718
     6  C   -0.109793
     7  H    0.263685
     8  H    0.257909
     9  N   -0.892810
    10  H    0.383309
    11  H    0.378253
    12  C    0.827660
    13  H    0.232992
    14  O   -0.637773
    15  O   -0.736427
    16  H    0.529106
 Sum of Mulliken charges =  -0.00000

 Dipole moment (field-independent basis, Debye):
    X=              2.2238    Y=             -4.6684    Z=              1.5825  Tot=              5.4077
 Quadrupole moment (field-independent basis, Debye-Ang):
   XX=            -80.6688   YY=            -45.1408   ZZ=            -49.9916
   XY=             -7.5206   XZ=            -15.7520   YZ=              3.0674

 Normal termination of Gaussian 16 at Mon Feb  5 16:00:57 2024.
