 Gaussian 16, Revision B.01,

 ----------------------------------
 #P B3LYP/6-31g* Opt=(MaxCycle=900)
 ----------------------------------

 -------------------
 Asparagine molecule
 -------------------
 Symbolic Z-matrix:
 Charge =  0 Multiplicity = 1

 SCF Done:  E(RB3LYP) =  -209.210863843     A.U. after   14 cycles
 SCF Done:  E(RB3LYP) =  -209.212081081     A.U. after   11 cycles
 SCF Done:  E(RB3LYP) =  -209.212171367     A.U. after   10 cycles
 SCF Done:  E(RB3LYP) =  -209.212143756     A.U. after   11 cycles
 SCF Done:  E(RB3LYP) =  -209.212188821     A.U. after    9 cycles
 SCF Done:  E(RB3LYP) =  -209.212189150     A.U. after    7 cycles
 SCF Done:  E(RB3LYP) =  -209.212189309     A.U. after    7 cycles
 SCF Done:  E(RB3LYP) =  -209.212189969     A.U. after    8 cycles
 SCF Done:  E(RB3LYP) =  -209.212190943     A.U. after    9 cycles
 SCF Done:  E(RB3LYP) =  -209.212192299     A.U. after    9 cycles
 SCF Done:  E(RB3LYP) =  -209.212193239     A.U. after    9 cycles
 SCF Done:  E(RB3LYP) =  -209.212193864     A.U. after    9 cycles
 SCF Done:  E(RB3LYP) =  -209.212194100     A.U. after    8 cycles
 SCF Done:  E(RB3LYP) =  -209.212194126     A.U. after    7 cycles
 Optimization completed.
    -- Stationary point found.
 Normal termination of Gaussian 16 at Wed Mar 27 14:12:30 2024.
 Gaussian 16:  ES64L-G16RevB.01 20-Dec-2017

 ----------------------------------------------------------------------
 #P HF/6-31G* SCF=(Tight,MaxCycle=900) Geom=AllCheck Guess=Read Pop=MK
 IOp(6/33=2,6/41=10,6/42=17)
 ----------------------------------------------------------------------

 Structure from the checkpoint file:  "098457434.chk"
 -------------------
 Asparagine molecule
 -------------------
 Charge =  0 Multiplicity = 1

                         Standard orientation:
 ---------------------------------------------------------------------
 Center     Atomic      Atomic             Coordinates (Angstroms)
 Number     Number       Type             X           Y           Z
 ---------------------------------------------------------------------
      1          6           0        1.365657   -0.339355    0.000002
      2          1           0        1.871939    0.064608   -0.881930
      3          1           0        1.468146   -1.429033    0.000812
      4          1           0        1.872452    0.066024    0.880977
      5          6           0       -0.077714    0.147487    0.000034
      6          8           0       -0.365632    1.334464    0.000012
      7          7           0       -1.029785   -0.835554   -0.000086
      8          1           0       -2.001512   -0.559352    0.000079
      9          1           0       -0.805136   -1.817874    0.000353
 ---------------------------------------------------------------------

 SCF Done:  E(RHF) =  -207.973801170     A.U. after   13 cycles

 The electronic state is 1-A.
 Alpha  occ. eigenvalues --  -20.51841 -15.58858 -11.35583 -11.23962  -1.37066
 Alpha  occ. eigenvalues --   -1.20449  -0.99974  -0.79544  -0.72068  -0.65749
 Alpha  occ. eigenvalues --   -0.60870  -0.57894  -0.55900  -0.51913  -0.41598
 Alpha  occ. eigenvalues --   -0.40561
 Alpha virt. eigenvalues --    0.20178   0.20991   0.26818   0.27362   0.32212
 Alpha virt. eigenvalues --    0.33414   0.39700   0.47722   0.59800   0.74231
 Alpha virt. eigenvalues --    0.74338   0.79789   0.84692   0.86764   0.90873

 Mulliken charges:
               1
     1  C   -0.579063
     2  H    0.209521
     3  H    0.164107
     4  H    0.209530
     5  C    0.743588
     6  O   -0.610654
     7  N   -0.924054
     8  H    0.397729
     9  H    0.389296
 Sum of Mulliken charges =  -0.00000

 Dipole moment (field-independent basis, Debye):
    X=              0.3367    Y=             -4.1310    Z=              0.0010  Tot=              4.1447
 Quadrupole moment (field-independent basis, Debye-Ang):
   XX=            -20.1701   YY=            -26.3438   ZZ=            -24.8503
   XY=              2.3931   XZ=             -0.0016   YZ=             -0.0017

 ESP charges:
               1
     1  C   -0.547494
     2  H    0.152800
     3  H    0.141297
     4  H    0.152752
     5  C    0.963320
     6  O   -0.655343
     7  N   -1.098147
     8  H    0.449806
     9  H    0.441009
 Sum of ESP charges =   0.00000

 Normal termination of Gaussian 16 at Wed Mar 27 14:12:32 2024.
