 Gaussian 16, Revision B.01,

 ----------------------------------
 #P B3LYP/6-31g* Opt=(MaxCycle=900)
 ----------------------------------

 -----------------
 Arginine molecule
 -----------------
 Symbolic Z-matrix:
 Charge =  0 Multiplicity = 2

 SCF Done:  E(UB3LYP) =  -245.138023536     A.U. after   27 cycles
 SCF Done:  E(UB3LYP) =  -245.156408695     A.U. after   16 cycles
 SCF Done:  E(UB3LYP) =  -245.156828423     A.U. after   17 cycles
 SCF Done:  E(UB3LYP) =  -245.156938040     A.U. after   15 cycles
 SCF Done:  E(UB3LYP) =  -245.145582407     A.U. after   18 cycles
 SCF Done:  E(UB3LYP) =  -245.150231036     A.U. after   17 cycles
 SCF Done:  E(UB3LYP) =  -245.157016444     A.U. after   15 cycles
 SCF Done:  E(UB3LYP) =  -245.159471498     A.U. after   16 cycles
 SCF Done:  E(UB3LYP) =  -245.167443088     A.U. after   13 cycles
 SCF Done:  E(UB3LYP) =  -245.155585166     A.U. after   17 cycles
 SCF Done:  E(UB3LYP) =  -245.206472506     A.U. after   13 cycles
 SCF Done:  E(UB3LYP) =  -245.208522093     A.U. after   13 cycles
 SCF Done:  E(UB3LYP) =  -245.209350039     A.U. after   12 cycles
 SCF Done:  E(UB3LYP) =  -245.209832369     A.U. after   12 cycles
 SCF Done:  E(UB3LYP) =  -245.210056127     A.U. after   11 cycles
 SCF Done:  E(UB3LYP) =  -245.210095852     A.U. after   11 cycles
 SCF Done:  E(UB3LYP) =  -245.210099903     A.U. after    9 cycles
 SCF Done:  E(UB3LYP) =  -245.210101915     A.U. after    9 cycles
 SCF Done:  E(UB3LYP) =  -245.210102182     A.U. after    8 cycles
 Optimization completed.
    -- Stationary point found.

 1\1\GINC-NODE17\FOpt\UB3LYP\6-31G(d)\C2H8N3(2)\P315462\28-Mar-2024\0\\
 #P B3LYP/6-31g* Opt=(MaxCycle=900)\\Arginine molecule\\0,2\C,-5.730182
 3463,-4.3049993571,-0.7307087393\H,-5.8578250398,-4.8545867748,0.21816
 32107\H,-5.6081543756,-5.0333041197,-1.537838203\H,-6.6530531536,-3.74
 90157201,-0.926649076\N,-4.5939466608,-3.3949257888,-0.7384366359\H,-3
 .7108888556,-3.8974340621,-0.7588764543\C,-4.5292447374,-2.3834699318,
 0.2560963839\N,-5.6925179273,-1.6349107577,0.5791212982\H,-6.473922172
 5,-2.2243189913,0.8521664259\H,-6.0072494131,-1.0246399435,-0.18852755

 Normal termination of Gaussian 16 at Thu Mar 28 08:47:14 2024.
 Gaussian 16:  ES64L-G16RevB.01 20-Dec-2017

 ----------------------------------------------------------------------
 #P HF/6-31G* SCF=(Tight,MaxCycle=900) Geom=AllCheck Guess=Read Pop=MK
 IOp(6/33=2,6/41=10,6/42=17)
 ----------------------------------------------------------------------

 Structure from the checkpoint file:  "/scratch/p315462/ARG.chk"
 -----------------
 Arginine molecule
 -----------------
 Charge =  0 Multiplicity = 2

                         Standard orientation:
 ---------------------------------------------------------------------
 Center     Atomic      Atomic             Coordinates (Angstroms)
 Number     Number       Type             X           Y           Z
 ---------------------------------------------------------------------
      1          6           0       -1.957617   -0.053680    0.028857
      2          1           0       -2.170321    0.197695    1.082548
      3          1           0       -2.741840   -0.726340   -0.330725
      4          1           0       -2.020890    0.868369   -0.558530
      5          7           0       -0.661705   -0.683705   -0.178521
      6          1           0       -0.642211   -1.631263    0.188190
      7          6           0        0.503044    0.004649    0.252586
      8          7           0        0.640317    1.393970   -0.009775
      9          1           0       -0.137555    1.939158    0.351103
     10          1           0        0.741458    1.608563   -1.012019
     11          7           0        1.655761   -0.794522    0.066767
     12          1           0        1.776803   -1.097275   -0.906970
     13          1           0        2.481385   -0.274931    0.348447
 ---------------------------------------------------------------------

 SCF Done:  E(UHF) =  -243.673230784     A.U. after   16 cycles

 The electronic state is 2-A.
 Alpha  occ. eigenvalues --  -15.55279 -15.54844 -15.54118 -11.29243 -11.25157
 Alpha  occ. eigenvalues --   -1.26528  -1.15574  -1.12783  -0.92384  -0.80060
 Alpha  occ. eigenvalues --   -0.68706  -0.67418  -0.66041  -0.61272  -0.59584
 Alpha  occ. eigenvalues --   -0.54875  -0.52825  -0.47688  -0.41838  -0.39894
 Alpha  occ. eigenvalues --   -0.27405
 Alpha virt. eigenvalues --    0.21867   0.25178   0.26621   0.29397   0.31434
 Alpha virt. eigenvalues --    0.31692   0.33148   0.33443   0.39483   0.48811
 Alpha virt. eigenvalues --    0.50583   0.54641   0.75906   0.76789   0.77486

  Beta  occ. eigenvalues --  -15.54967 -15.54840 -15.54121 -11.26686 -11.25159
  Beta  occ. eigenvalues --   -1.24316  -1.14799  -1.12541  -0.91801  -0.76327
  Beta  occ. eigenvalues --   -0.67257  -0.66089  -0.64131  -0.60333  -0.58782
  Beta  occ. eigenvalues --   -0.54479  -0.52496  -0.42654  -0.41130  -0.37364
  Beta virt. eigenvalues --    0.17937   0.23300   0.25796   0.26935   0.29917
  Beta virt. eigenvalues --    0.31667   0.32153   0.33575   0.35358   0.39764
  Beta virt. eigenvalues --    0.52054   0.53255   0.57513   0.76708   0.77765

 Mulliken charges and spin densities:
               1          2
     1  C   -0.295523  -0.009272
     2  H    0.145944   0.014466
     3  H    0.174244  -0.001922
     4  H    0.158322   0.000308
     5  N   -0.720958   0.034361
     6  H    0.361162  -0.002954
     7  C    0.551442   0.979992
     8  N   -0.867605  -0.082384
     9  H    0.347628   0.000570
    10  H    0.326549   0.073062
    11  N   -0.869347  -0.067555
    12  H    0.332883   0.061737
    13  H    0.355259  -0.000410
 Sum of Mulliken charges =  -0.00000   1.00000

 Dipole moment (field-independent basis, Debye):
    X=             -1.1968    Y=              0.6204    Z=             -1.0431  Tot=              1.7045
 Quadrupole moment (field-independent basis, Debye-Ang):
   XX=            -28.9364   YY=            -31.6331   ZZ=            -32.0288
   XY=             -0.4208   XZ=             -3.3284   YZ=             -0.7109

 ESP charges:
               1
     1  C   -0.089623
     2  H    0.042139
     3  H    0.093861
     4  H    0.075155
     5  N   -0.669314
     6  H    0.370045
     7  C    0.738244
     8  N   -1.111603
     9  H    0.414083
    10  H    0.421537
    11  N   -1.163130
    12  H    0.420651
    13  H    0.457955
 Sum of ESP charges =   0.00000

 Normal termination of Gaussian 16 at Thu Mar 28 08:47:21 2024.
