 Gaussian 16, Revision C.01,
 Gaussian 16:  EM64L-G16RevC.01  3-Jul-2019

 -----------------------
 #HF/6-31G* scrf=smd opt
 -----------------------

 ----------------------
 Deprotonated Aspartate
 ----------------------
 Symbolic Z-matrix:
 Charge = -1 Multiplicity = 1

 SCF Done:  E(RHF) =  -509.016696514     A.U. after   14 cycles
 SCF Done:  E(RHF) =  -509.035251928     A.U. after   12 cycles
 SCF Done:  E(RHF) =  -509.037822202     A.U. after   12 cycles
 SCF Done:  E(RHF) =  -509.038209462     A.U. after   13 cycles
 SCF Done:  E(RHF) =  -509.030979465     A.U. after   14 cycles
 SCF Done:  E(RHF) =  -509.038022526     A.U. after   13 cycles
 SCF Done:  E(RHF) =  -509.038677153     A.U. after    9 cycles
 SCF Done:  E(RHF) =  -509.039538490     A.U. after   12 cycles
 SCF Done:  E(RHF) =  -509.040017364     A.U. after   14 cycles
 SCF Done:  E(RHF) =  -509.040147050     A.U. after   11 cycles
 SCF Done:  E(RHF) =  -509.040313820     A.U. after    8 cycles
 SCF Done:  E(RHF) =  -509.038306540     A.U. after   14 cycles
 SCF Done:  E(RHF) =  -509.039765682     A.U. after   12 cycles
 SCF Done:  E(RHF) =  -509.040317926     A.U. after    8 cycles
 SCF Done:  E(RHF) =  -509.039987959     A.U. after   12 cycles
 SCF Done:  E(RHF) =  -509.040216324     A.U. after   12 cycles
 SCF Done:  E(RHF) =  -509.040323013     A.U. after    7 cycles
 SCF Done:  E(RHF) =  -509.040332154     A.U. after   10 cycles
 SCF Done:  E(RHF) =  -509.040332632     A.U. after    8 cycles
 SCF Done:  E(RHF) =  -509.040332667     A.U. after    9 cycles
 Optimization completed.
    -- Stationary point found.

                         Standard orientation:
 ---------------------------------------------------------------------
 Center     Atomic      Atomic             Coordinates (Angstroms)
 Number     Number       Type             X           Y           Z
 ---------------------------------------------------------------------
      1          6           0        1.934372   -0.068501    0.091594
      2          8           0        2.184894    0.873093    0.789534
      3          8           0        2.940406   -0.743063   -0.451377
      4          1           0        2.636757   -1.472606   -0.985529
      5          6           0        0.554500   -0.591080   -0.206318
      6          6           0       -0.566234    0.342686    0.230624
      7          1           0        0.476167   -1.544691    0.302579
      8          1           0        0.488516   -0.790399   -1.271041
      9          7           0       -0.514369    1.584036   -0.530755
     10          1           0        0.218568    2.162205   -0.167227
     11          1           0       -1.373290    2.076456   -0.384752
     12          6           0       -1.940918   -0.329897    0.087821
     13          1           0       -0.457293    0.518261    1.301005
     14          8           0       -2.902408    0.396707   -0.210656
     15          8           0       -2.007787   -1.546326    0.334739
 ---------------------------------------------------------------------

 The electronic state is 1-A.
 Alpha  occ. eigenvalues --  -20.61245 -20.55600 -20.49234 -20.49057 -15.52603
 Alpha  occ. eigenvalues --  -11.38936 -11.32693 -11.24502 -11.22786  -1.47215
 Alpha  occ. eigenvalues --   -1.37957  -1.36989  -1.26976  -1.17668  -1.02926
 Alpha  occ. eigenvalues --   -0.89367  -0.83063  -0.71439  -0.70931  -0.67223
 Alpha  occ. eigenvalues --   -0.66582  -0.65897  -0.62411  -0.60260  -0.58492
 Alpha  occ. eigenvalues --   -0.56847  -0.55395  -0.51584  -0.50944  -0.48435
 Alpha  occ. eigenvalues --   -0.45507  -0.40723  -0.40322  -0.39697  -0.38005
 Alpha virt. eigenvalues --    0.19019   0.23405   0.25063   0.27653   0.30959
 Alpha virt. eigenvalues --    0.32786   0.34200   0.36230   0.41508   0.43330
 Alpha virt. eigenvalues --    0.47311   0.49357   0.49815   0.54106   0.61204

 Mulliken charges:
               1
     1  C    0.829441
     2  O   -0.656250
     3  O   -0.741322
     4  H    0.525153
     5  C   -0.466635
     6  C   -0.104374
     7  H    0.242063
     8  H    0.227010
     9  N   -0.908437
    10  H    0.364134
    11  H    0.365903
    12  C    0.792372
    13  H    0.192133
    14  O   -0.829581
    15  O   -0.831611
 Sum of Mulliken charges =  -1.00000

 Dipole moment (field-independent basis, Debye):
    X=              9.7966    Y=             -0.5792    Z=             -1.4763  Tot=              9.9241
 Quadrupole moment (field-independent basis, Debye-Ang):
   XX=            -99.9185   YY=            -57.2894   ZZ=            -54.1471
   XY=            -15.2904   XZ=             -7.7258   YZ=              5.1638

 Normal termination of Gaussian 16 at Mon Feb  5 16:15:06 2024.
