 Gaussian 16, Revision C.01,
 Gaussian 16:  EM64L-G16RevC.01  3-Jul-2019

 ----------------------------------------------------------------------
 #HF/6-31G* scrf=smd SCF=tight Test Pop=MK iop(6/33=2) iop(6/42=6) # io
 p(6/50=1)
 ----------------------------------------------------------------------

 -----------------
 calc RESP charges
 -----------------
 Symbolic Z-matrix:
 Charge = -1 Multiplicity = 1

                         Standard orientation:
 ---------------------------------------------------------------------
 Center     Atomic      Atomic             Coordinates (Angstroms)
 Number     Number       Type             X           Y           Z
 ---------------------------------------------------------------------
      1          6           0        1.934372   -0.068501    0.091594
      2          8           0        2.184896    0.873093    0.789534
      3          8           0        2.940405   -0.743066   -0.451375
      4          1           0        2.636755   -1.472609   -0.985525
      5          6           0        0.554500   -0.591077   -0.206322
      6          6           0       -0.566234    0.342687    0.230624
      7          1           0        0.476166   -1.544690    0.302571
      8          1           0        0.488516   -0.790390   -1.271046
      9          7           0       -0.514371    1.584038   -0.530754
     10          1           0        0.218569    2.162204   -0.167229
     11          1           0       -1.373290    2.076458   -0.384744
     12          6           0       -1.940918   -0.329898    0.087821
     13          1           0       -0.457291    0.518258    1.301005
     14          8           0       -2.902408    0.396705   -0.210655
     15          8           0       -2.007787   -1.546327    0.334741
 ---------------------------------------------------------------------

 SCF Done:  E(RHF) =  -509.040332667     A.U. after   13 cycles

 The electronic state is 1-A.
 Alpha  occ. eigenvalues --  -20.61245 -20.55600 -20.49234 -20.49057 -15.52603
 Alpha  occ. eigenvalues --  -11.38936 -11.32693 -11.24502 -11.22786  -1.47215
 Alpha  occ. eigenvalues --   -1.37957  -1.36989  -1.26976  -1.17668  -1.02926
 Alpha  occ. eigenvalues --   -0.89367  -0.83063  -0.71439  -0.70931  -0.67223
 Alpha  occ. eigenvalues --   -0.66582  -0.65897  -0.62411  -0.60260  -0.58492
 Alpha  occ. eigenvalues --   -0.56847  -0.55395  -0.51584  -0.50944  -0.48435
 Alpha  occ. eigenvalues --   -0.45507  -0.40723  -0.40322  -0.39697  -0.38005
 Alpha virt. eigenvalues --    0.19019   0.23405   0.25063   0.27653   0.30959
 Alpha virt. eigenvalues --    0.32786   0.34200   0.36230   0.41508   0.43330
 Alpha virt. eigenvalues --    0.47311   0.49357   0.49815   0.54106   0.61204

 Mulliken charges:
               1
     1  C    0.829441
     2  O   -0.656251
     3  O   -0.741322
     4  H    0.525153
     5  C   -0.466635
     6  C   -0.104374
     7  H    0.242064
     8  H    0.227010
     9  N   -0.908436
    10  H    0.364134
    11  H    0.365903
    12  C    0.792372
    13  H    0.192133
    14  O   -0.829580
    15  O   -0.831612
 Sum of Mulliken charges =  -1.00000

 Dipole moment (field-independent basis, Debye):
    X=              9.7966    Y=             -0.5792    Z=             -1.4763  Tot=              9.9241
 Quadrupole moment (field-independent basis, Debye-Ang):
   XX=            -99.9186   YY=            -57.2894   ZZ=            -54.1471
   XY=            -15.2904   XZ=             -7.7258   YZ=              5.1638

 ESP charges:
               1
     1  C    0.997499
     2  O   -0.704367
     3  O   -0.748473
     4  H    0.515926
     5  C   -0.434387
     6  C    0.412824
     7  H    0.110858
     8  H    0.140398
     9  N   -1.157547
    10  H    0.418822
    11  H    0.406093
    12  C    0.899292
    13  H   -0.046023
    14  O   -0.895202
    15  O   -0.915713
 Sum of ESP charges =  -1.00000

 Normal termination of Gaussian 16 at Mon Feb  5 16:17:04 2024.
