 Gaussian 16, Revision C.01,
 Gaussian 16:  EM64L-G16RevC.01  3-Jul-2019

 ----------------------------------------------------------------------
 #HF/6-31G* scrf=smd SCF=tight Test Pop=MK iop(6/33=2) iop(6/42=6) # io
 p(6/50=1)
 ----------------------------------------------------------------------

 -----------------
 calc RESP charges
 -----------------
 Symbolic Z-matrix:
 Charge =  0 Multiplicity = 1

                         Standard orientation:
 ---------------------------------------------------------------------
 Center     Atomic      Atomic             Coordinates (Angstroms)
 Number     Number       Type             X           Y           Z
 ---------------------------------------------------------------------
      1          8           0        0.000000    0.000000    0.116620
      2          1           0        0.000000    0.751055   -0.466480
      3          1           0       -0.000000   -0.751055   -0.466480
 ---------------------------------------------------------------------

 SCF Done:  E(RHF) =  -76.0253597908     A.U. after   10 cycles

 The electronic state is 1-A1.
 Alpha  occ. eigenvalues --  -20.55811  -1.34443  -0.70713  -0.58173  -0.50477
 Alpha virt. eigenvalues --    0.23893   0.33454   1.02545   1.11424   1.15696
 Alpha virt. eigenvalues --    1.18642   1.38143   1.44238   2.00899   2.02459
 Alpha virt. eigenvalues --    2.05559   2.62801   2.95554   3.96748

 Mulliken charges:
               1
     1  O   -0.961137
     2  H    0.480569
     3  H    0.480569
 Sum of Mulliken charges =  -0.00000

 Dipole moment (field-independent basis, Debye):
    X=             -0.0000    Y=             -0.0000    Z=             -2.5966  Tot=              2.5966
 Quadrupole moment (field-independent basis, Debye-Ang):
   XX=             -7.2401   YY=             -3.9396   ZZ=             -5.9281
   XY=              0.0000   XZ=              0.0000   YZ=             -0.0000

 ESP charges:
               1
     1  O   -0.940994
     2  H    0.470497
     3  H    0.470497
 Sum of ESP charges =   0.00000

 Normal termination of Gaussian 16 at Mon Feb  5 10:40:01 2024.
