 Gaussian 16, Revision B.01,

 ----------------------------------
 #P B3LYP/6-31g* Opt=(MaxCycle=900)
 ----------------------------------

 --------
 Tyrosine
 --------
 Symbolic Z-matrix:
 Charge =  0 Multiplicity = 1

 SCF Done:  E(RB3LYP) =  -307.462707883     A.U. after   13 cycles
 SCF Done:  E(RB3LYP) =  -307.464791985     A.U. after   11 cycles
 SCF Done:  E(RB3LYP) =  -307.464857447     A.U. after   10 cycles
 SCF Done:  E(RB3LYP) =  -307.464859986     A.U. after    8 cycles
 SCF Done:  E(RB3LYP) =  -307.464860388     A.U. after    7 cycles
 SCF Done:  E(RB3LYP) =  -307.464860516     A.U. after    7 cycles
 Optimization completed.
    -- Stationary point found.
 Normal termination of Gaussian 16 at Wed Mar 27 14:16:46 2024.
 Gaussian 16:  ES64L-G16RevB.01 20-Dec-2017

 ----------------------------------------------------------------------
 #P HF/6-31G* SCF=(Tight,MaxCycle=900) Geom=AllCheck Guess=Read Pop=MK
 IOp(6/33=2,6/41=10,6/42=17)
 ----------------------------------------------------------------------

 Structure from the checkpoint file:  "098457434.chk"
 --------
 Tyrosine
 --------
 Charge =  0 Multiplicity = 1

                         Standard orientation:
 ---------------------------------------------------------------------
 Center     Atomic      Atomic             Coordinates (Angstroms)
 Number     Number       Type             X           Y           Z
 ---------------------------------------------------------------------
      1          6           0       -1.857336    0.027898    0.000011
      2          1           0       -2.943149    0.046704    0.000044
      3          6           0       -1.131855    1.219358    0.000007
      4          1           0       -1.649887    2.174829    0.000004
      5          6           0       -1.171509   -1.190469    0.000003
      6          1           0       -1.725704   -2.125486    0.000040
      7          6           0        0.263983    1.199561   -0.000044
      8          1           0        0.826673    2.131868   -0.000123
      9          6           0        0.220848   -1.224338    0.000018
     10          1           0        0.766153   -2.162949    0.000079
     11          6           0        0.940848   -0.024463   -0.000016
     12          8           0        2.307183   -0.111786   -0.000121
     13          1           0        2.678579    0.784038    0.001047
 ---------------------------------------------------------------------

 SCF Done:  E(RHF) =  -305.556004009     A.U. after   13 cycles

 The electronic state is 1-A.
 Alpha  occ. eigenvalues --  -20.59403 -11.30296 -11.24262 -11.24029 -11.23448
 Alpha  occ. eigenvalues --  -11.22777 -11.22758  -1.39879  -1.14119  -1.01511
 Alpha  occ. eigenvalues --   -0.99954  -0.84119  -0.81751  -0.72686  -0.68000
 Alpha  occ. eigenvalues --   -0.64686  -0.60497  -0.58679  -0.58300  -0.56228
 Alpha  occ. eigenvalues --   -0.51258  -0.48932  -0.47673  -0.33741  -0.30912
 Alpha virt. eigenvalues --    0.14056   0.16045   0.21803   0.23771   0.29220
 Alpha virt. eigenvalues --    0.30603   0.33302   0.33823   0.37219   0.43169
 Alpha virt. eigenvalues --    0.47281   0.47559   0.52712   0.54133   0.67444

 Mulliken charges:
               1
     1  C   -0.226956
     2  H    0.199727
     3  C   -0.180928
     4  H    0.204901
     5  C   -0.182327
     6  H    0.205288
     7  C   -0.288267
     8  H    0.191360
     9  C   -0.247415
    10  H    0.218255
    11  C    0.413016
    12  O   -0.762034
    13  H    0.455378
 Sum of Mulliken charges =  -0.00000

 Dipole moment (field-independent basis, Debye):
    X=             -0.3120    Y=              1.4633    Z=              0.0022  Tot=              1.4962
 Quadrupole moment (field-independent basis, Debye-Ang):
   XX=            -37.5268   YY=            -34.9776   ZZ=            -45.0924
   XY=              4.7663   XZ=              0.0063   YZ=              0.0018

 ESP charges:
               1
     1  C   -0.260616
     2  H    0.153789
     3  C   -0.018213
     4  H    0.135430
     5  C   -0.055531
     6  H    0.137937
     7  C   -0.433859
     8  H    0.179920
     9  C   -0.341109
    10  H    0.196898
    11  C    0.512050
    12  O   -0.644637
    13  H    0.437943
 Sum of ESP charges =  -0.00000

 Normal termination of Gaussian 16 at Wed Mar 27 14:16:51 2024.
