 Gaussian 16, Revision C.01,
 Gaussian 16:  EM64L-G16RevC.01  3-Jul-2019

 ------------------------
 # HF/6-31G* scrf=smd opt
 ------------------------

 -------
 RR Diol
 -------
 Symbolic Z-matrix:
 Charge =  0 Multiplicity = 1

 SCF Done:  E(RHF) =  -688.030242729     A.U. after   13 cycles
 SCF Done:  E(RHF) =  -688.039639009     A.U. after   11 cycles
 SCF Done:  E(RHF) =  -688.040666597     A.U. after   12 cycles
 SCF Done:  E(RHF) =  -688.041048225     A.U. after   12 cycles
 SCF Done:  E(RHF) =  -688.041257479     A.U. after   11 cycles
 SCF Done:  E(RHF) =  -688.041321293     A.U. after   10 cycles
 SCF Done:  E(RHF) =  -688.041334605     A.U. after    9 cycles
 SCF Done:  E(RHF) =  -688.041336820     A.U. after    9 cycles
 SCF Done:  E(RHF) =  -688.041336879     A.U. after    7 cycles
 Optimization completed.
    -- Stationary point found.

                         Standard orientation:
 ---------------------------------------------------------------------
 Center     Atomic      Atomic             Coordinates (Angstroms)
 Number     Number       Type             X           Y           Z
 ---------------------------------------------------------------------
      1          8           0        0.105774   -1.740690    1.777295
      2          1           0        0.834841   -1.823034    2.382433
      3          6           0       -0.613009   -1.627010   -0.467006
      4          1           0       -1.166997   -2.524969   -0.216322
      5          6           0       -1.548779   -0.440410   -0.313444
      6          6           0       -1.397913    0.709936   -1.081586
      7          6           0       -2.270630    1.777733   -0.933896
      8          6           0       -3.306802    1.711604   -0.015114
      9          6           0       -3.468497    0.567408    0.751510
     10          6           0       -2.598305   -0.500868    0.598044
     11          6           0        0.613009   -1.627010    0.467006
     12          6           0        1.548779   -0.440410    0.313444
     13          6           0        1.397913    0.709936    1.081586
     14          6           0        2.270629    1.777733    0.933896
     15          6           0        3.306802    1.711604    0.015115
     16          6           0        3.468498    0.567409   -0.751510
     17          6           0        2.598306   -0.500868   -0.598043
     18          8           0       -0.105774   -1.740689   -1.777296
     19          1           0       -0.834841   -1.823028   -2.382435
     20          1           0       -0.602961    0.773106   -1.800689
     21          1           0       -2.140754    2.658565   -1.537241
     22          1           0       -3.984424    2.539037    0.097391
     23          1           0       -4.274596    0.501865    1.460431
     24          1           0       -2.740881   -1.389422    1.186969
     25          1           0        1.166998   -2.524969    0.216321
     26          1           0        0.602960    0.773106    1.800689
     27          1           0        2.140753    2.658566    1.537241
     28          1           0        3.984423    2.539037   -0.097390
     29          1           0        4.274597    0.501866   -1.460430
     30          1           0        2.740882   -1.389422   -1.186968
 ---------------------------------------------------------------------

 The electronic state is 1-A.
 Alpha  occ. eigenvalues --  -20.56732 -20.56732 -11.28450 -11.28392 -11.23419
 Alpha  occ. eigenvalues --  -11.23418 -11.22796 -11.22796 -11.22750 -11.22750
 Alpha  occ. eigenvalues --  -11.22666 -11.22666 -11.22619 -11.22618 -11.22573
 Alpha  occ. eigenvalues --  -11.22573  -1.38211  -1.36746  -1.15452  -1.15098
 Alpha  occ. eigenvalues --   -1.05315  -1.02459  -1.01187  -1.01069  -0.96372
 Alpha  occ. eigenvalues --   -0.86691  -0.82451  -0.82199  -0.80924  -0.77563
 Alpha  occ. eigenvalues --   -0.72848  -0.70791  -0.68244  -0.68168  -0.65511
 Alpha  occ. eigenvalues --   -0.62759  -0.62027  -0.61631  -0.60271  -0.59050
 Alpha  occ. eigenvalues --   -0.58458  -0.57941  -0.57196  -0.54706  -0.52744
 Alpha  occ. eigenvalues --   -0.50627  -0.50349  -0.49917  -0.48696  -0.48247
 Alpha  occ. eigenvalues --   -0.46149  -0.45515  -0.43926  -0.33888  -0.33447
 Alpha  occ. eigenvalues --   -0.32484  -0.32437
 Alpha virt. eigenvalues --    0.13526   0.13711   0.14844   0.15261   0.24576
 Alpha virt. eigenvalues --    0.25128   0.25728   0.26501   0.29619   0.29696
 Alpha virt. eigenvalues --    0.32071   0.32100   0.32625   0.33492   0.34920

 Mulliken charges:
               1
     1  O   -0.817370
     2  H    0.488305
     3  C    0.169358
     4  H    0.201169
     5  C   -0.036218
     6  C   -0.233296
     7  C   -0.232087
     8  C   -0.232193
     9  C   -0.231083
    10  C   -0.240533
    11  C    0.169358
    12  C   -0.036218
    13  C   -0.233296
    14  C   -0.232087
    15  C   -0.232193
    16  C   -0.231083
    17  C   -0.240533
    18  O   -0.817370
    19  H    0.488305
    20  H    0.233733
    21  H    0.231893
    22  H    0.232089
    23  H    0.232406
    24  H    0.233828
    25  H    0.201169
    26  H    0.233733
    27  H    0.231893
    28  H    0.232089
    29  H    0.232406
    30  H    0.233828
 Sum of Mulliken charges =  -0.00000

 Dipole moment (field-independent basis, Debye):
    X=             -0.0000    Y=             -0.2129    Z=             -0.0000  Tot=              0.2129
 Quadrupole moment (field-independent basis, Debye-Ang):
   XX=            -84.5172   YY=            -84.1847   ZZ=            -88.6793
   XY=             -0.0000   XZ=              1.1409   YZ=             -0.0000

 Normal termination of Gaussian 16 at Mon Feb  5 10:47:10 2024.
