 Gaussian 16, Revision B.01,

 ----------------------------------
 #P B3LYP/6-31g* Opt=(MaxCycle=900)
 ----------------------------------

 --------------------
 Protonated Aspartate
 --------------------
 Symbolic Z-matrix:
 Charge =  0 Multiplicity = 1

 SCF Done:  E(RB3LYP) =  -229.069847201     A.U. after   13 cycles
 SCF Done:  E(RB3LYP) =  -229.071689156     A.U. after   12 cycles
 SCF Done:  E(RB3LYP) =  -229.071687034     A.U. after   12 cycles
 SCF Done:  E(RB3LYP) =  -229.071824534     A.U. after   11 cycles
 SCF Done:  E(RB3LYP) =  -229.071909813     A.U. after   10 cycles
 SCF Done:  E(RB3LYP) =  -229.071911183     A.U. after    8 cycles
 SCF Done:  E(RB3LYP) =  -229.071912050     A.U. after    8 cycles
 SCF Done:  E(RB3LYP) =  -229.071912503     A.U. after    8 cycles
 SCF Done:  E(RB3LYP) =  -229.071912826     A.U. after    8 cycles
 SCF Done:  E(RB3LYP) =  -229.071912964     A.U. after    7 cycles
 Optimization completed.
    -- Stationary point found.
 Normal termination of Gaussian 16 at Wed Mar 27 13:55:59 2024.
 Gaussian 16:  ES64L-G16RevB.01 20-Dec-2017

 ----------------------------------------------------------------------
 #P HF/6-31G* SCF=(Tight,MaxCycle=900) Geom=AllCheck Guess=Read Pop=MK
 IOp(6/33=2,6/41=10,6/42=17)
 ----------------------------------------------------------------------

 Structure from the checkpoint file:  "098457434.chk"
 --------------------
 Protonated Aspartate
 --------------------
 Charge =  0 Multiplicity = 1

                         Standard orientation:
 ---------------------------------------------------------------------
 Center     Atomic      Atomic             Coordinates (Angstroms)
 Number     Number       Type             X           Y           Z
 ---------------------------------------------------------------------
      1          6           0        1.375516   -0.038205   -0.000059
      2          1           0        1.851965    0.942279   -0.000718
      3          1           0        1.700951   -0.596779   -0.886109
      4          1           0        1.701183   -0.595470    0.886763
      5          6           0       -0.133648    0.138417   -0.000012
      6          8           0       -0.701094    1.199502    0.000080
      7          8           0       -0.854818   -1.020124   -0.000188
      8          1           0       -0.258005   -1.786319    0.001344
 ---------------------------------------------------------------------

 SCF Done:  E(RHF) =  -227.796502472     A.U. after   13 cycles

 The electronic state is 1-A.
 Alpha  occ. eigenvalues --  -20.61918 -20.55385 -11.39375 -11.26155  -1.45487
 Alpha  occ. eigenvalues --   -1.36020  -1.02647  -0.82621  -0.71755  -0.66423
 Alpha  occ. eigenvalues --   -0.64781  -0.60018  -0.56914  -0.55527  -0.47329
 Alpha  occ. eigenvalues --   -0.44728
 Alpha virt. eigenvalues --    0.17914   0.18982   0.25860   0.29527   0.30946
 Alpha virt. eigenvalues --    0.37259   0.48527   0.51314   0.72422   0.76632
 Alpha virt. eigenvalues --    0.79303   0.80794   0.83268   0.93824   0.97036

 Mulliken charges:
               1
     1  C   -0.623714
     2  H    0.229845
     3  H    0.197225
     4  H    0.197205
     5  C    0.771401
     6  O   -0.530562
     7  O   -0.702260
     8  H    0.460860
 Sum of Mulliken charges =  -0.00000

 Dipole moment (field-independent basis, Debye):
    X=              3.7058    Y=             -3.1506    Z=              0.0027  Tot=              4.8641
 Quadrupole moment (field-independent basis, Debye-Ang):
   XX=            -25.4420   YY=            -23.2468   ZZ=            -22.9522
   XY=              0.4170   XZ=             -0.0005   YZ=             -0.0061

 ESP charges:
               1
     1  C   -0.568299
     2  H    0.167515
     3  H    0.154328
     4  H    0.154256
     5  C    0.869916
     6  O   -0.556697
     7  O   -0.651050
     8  H    0.430031
 Sum of ESP charges =  -0.00000

 Normal termination of Gaussian 16 at Wed Mar 27 13:56:01 2024.
