 Gaussian 16, Revision B.01,

 ----------------------------------
 #P B3LYP/6-31g* Opt=(MaxCycle=900)
 ----------------------------------

 ----------------------
 Deprotonated Aspartate
 ----------------------
 Symbolic Z-matrix:
 Charge = -1 Multiplicity = 1

 SCF Done:  E(RB3LYP) =  -228.495068316     A.U. after   14 cycles
 SCF Done:  E(RB3LYP) =  -228.497391543     A.U. after   13 cycles
 SCF Done:  E(RB3LYP) =  -228.481995703     A.U. after   15 cycles
 SCF Done:  E(RB3LYP) =  -228.497876327     A.U. after   11 cycles
 SCF Done:  E(RB3LYP) =  -228.497910319     A.U. after   10 cycles
 Optimization completed.
    -- Stationary point found.
 Normal termination of Gaussian 16 at Wed Mar 27 13:50:59 2024.
 Gaussian 16:  ES64L-G16RevB.01 20-Dec-2017

 ----------------------------------------------------------------------
 #P HF/6-31G* SCF=(Tight,MaxCycle=900) Geom=AllCheck Guess=Read Pop=MK
 IOp(6/33=2,6/41=10,6/42=17)
 ----------------------------------------------------------------------

 Structure from the checkpoint file:  "098457434.chk"
 ----------------------
 Deprotonated Aspartate
 ----------------------
 Charge = -1 Multiplicity = 1

                         Standard orientation:
 ---------------------------------------------------------------------
 Center     Atomic      Atomic             Coordinates (Angstroms)
 Number     Number       Type             X           Y           Z
 ---------------------------------------------------------------------
      1          6           0        1.353929   -0.055086   -0.000331
      2          1           0        1.734308   -1.084751   -0.021339
      3          1           0        1.749151    0.451851    0.892697
      4          1           0        1.752653    0.491493   -0.867805
      5          6           0       -0.219959    0.001997   -0.000618
      6          8           0       -0.808879   -1.108283    0.000142
      7          8           0       -0.696112    1.165776    0.000125
 ---------------------------------------------------------------------

 SCF Done:  E(RHF) =  -227.222793019     A.U. after   12 cycles

 The electronic state is 1-A.
 Alpha  occ. eigenvalues --  -20.26586 -20.26293 -11.11686 -11.03547  -1.13362
 Alpha  occ. eigenvalues --   -1.03475  -0.77199  -0.48891  -0.39428  -0.39234
 Alpha  occ. eigenvalues --   -0.38971  -0.33989  -0.29704  -0.17629  -0.16564
 Alpha  occ. eigenvalues --   -0.16036
 Alpha virt. eigenvalues --    0.42758   0.43617   0.48888   0.53313   0.60174
 Alpha virt. eigenvalues --    0.72054   0.78146   0.95071   1.01570   1.02173
 Alpha virt. eigenvalues --    1.05719   1.10341   1.18182   1.23002   1.31659

 Mulliken charges:
               1
     1  C   -0.549315
     2  H    0.117685
     3  H    0.114903
     4  H    0.115113
     5  C    0.741766
     6  O   -0.769651
     7  O   -0.770501
 Sum of Mulliken charges =  -1.00000

 Dipole moment (field-independent basis, Debye):
    X=              3.8745    Y=             -0.1502    Z=              0.0016  Tot=              3.8774
 Quadrupole moment (field-independent basis, Debye-Ang):
   XX=            -30.7416   YY=            -34.6921   ZZ=            -24.3508
   XY=             -0.1447   XZ=              0.0061   YZ=             -0.0001

 ESP charges:
               1
     1  C   -0.334159
     2  H    0.030347
     3  H    0.040622
     4  H    0.039978
     5  C    0.911394
     6  O   -0.840598
     7  O   -0.847584
 Sum of ESP charges =  -1.00000

 Normal termination of Gaussian 16 at Wed Mar 27 13:51:02 2024.
