 Gaussian 16, Revision C.01,
 Gaussian 16:  EM64L-G16RevC.01  3-Jul-2019

 ------------------------
 # HF/6-31G* scrf=smd opt
 ------------------------

 ----------------------
 stilbeneoxide molecule
 ----------------------
 Symbolic Z-matrix:
 Charge =  0 Multiplicity = 1

 SCF Done:  E(RHF) =  -611.975607930     A.U. after   13 cycles
 SCF Done:  E(RHF) =  -611.982982584     A.U. after   12 cycles
 SCF Done:  E(RHF) =  -611.983335505     A.U. after   11 cycles
 SCF Done:  E(RHF) =  -611.983380181     A.U. after   11 cycles
 SCF Done:  E(RHF) =  -611.983387464     A.U. after   11 cycles
 SCF Done:  E(RHF) =  -611.983388460     A.U. after    8 cycles
 SCF Done:  E(RHF) =  -611.983388563     A.U. after    7 cycles
 SCF Done:  E(RHF) =  -611.983388637     A.U. after    7 cycles
 SCF Done:  E(RHF) =  -611.983388689     A.U. after    7 cycles
 SCF Done:  E(RHF) =  -611.983388719     A.U. after    7 cycles
 Optimization completed.
    -- Stationary point found.

                         Standard orientation:
 ---------------------------------------------------------------------
 Center     Atomic      Atomic             Coordinates (Angstroms)
 Number     Number       Type             X           Y           Z
 ---------------------------------------------------------------------
      1          8           0       -0.000063    2.281362   -0.894122
      2          6           0       -0.731976    1.852848    0.236439
      3          6           0       -1.574024    0.624306    0.109228
      4          6           0       -2.169258    0.107264    1.256852
      5          6           0       -2.966246   -1.022335    1.186395
      6          6           0       -3.185475   -1.644248   -0.035625
      7          6           0       -2.603877   -1.127278   -1.181440
      8          6           0       -1.799954    0.002695   -1.110862
      9          6           0        0.732093    1.852802    0.236270
     10          6           0        1.574079    0.624246    0.108846
     11          6           0        1.798565    0.001777   -1.111082
     12          6           0        2.602431   -1.128219   -1.181827
     13          6           0        3.185396   -1.644392   -0.036342
     14          6           0        2.967603   -1.021639    1.185501
     15          6           0        2.170698    0.108015    1.256113
     16          1           0       -1.205300    2.661807    0.767186
     17          1           0       -2.007754    0.590156    2.205093
     18          1           0       -3.416931   -1.415050    2.080177
     19          1           0       -3.806846   -2.519949   -0.091977
     20          1           0       -2.774380   -1.599419   -2.132458
     21          1           0       -1.358596    0.399794   -2.005240
     22          1           0        1.205579    2.661726    0.766922
     23          1           0        1.356158    0.398251   -2.005215
     24          1           0        2.771828   -1.601006   -2.132722
     25          1           0        3.806720   -2.520117   -0.092829
     26          1           0        3.419357   -1.413718    2.079022
     27          1           0        2.010336    0.591573    2.204207
 ---------------------------------------------------------------------

 The electronic state is 1-A.
 Alpha  occ. eigenvalues --  -20.58701 -11.29185 -11.29107 -11.24211 -11.24209
 Alpha  occ. eigenvalues --  -11.23065 -11.23065 -11.22999 -11.22999 -11.22942
 Alpha  occ. eigenvalues --  -11.22942 -11.22879 -11.22878 -11.22763 -11.22763
 Alpha  occ. eigenvalues --   -1.43831  -1.15676  -1.15586  -1.03964  -1.03373
 Alpha  occ. eigenvalues --   -1.01484  -1.01363  -0.92989  -0.88440  -0.82807
 Alpha  occ. eigenvalues --   -0.82380  -0.81077  -0.77917  -0.72255  -0.70040
 Alpha  occ. eigenvalues --   -0.68658  -0.65140  -0.63112  -0.62432  -0.61698
 Alpha  occ. eigenvalues --   -0.60846  -0.58367  -0.58242  -0.56013  -0.54591
 Alpha  occ. eigenvalues --   -0.52605  -0.51089  -0.50133  -0.49091  -0.48556
 Alpha  occ. eigenvalues --   -0.48072  -0.45688  -0.45457  -0.34069  -0.33410
 Alpha  occ. eigenvalues --   -0.33009  -0.32283
 Alpha virt. eigenvalues --    0.13390   0.13578   0.14075   0.15296   0.24725
 Alpha virt. eigenvalues --    0.25940   0.27090   0.28599   0.29602   0.30545
 Alpha virt. eigenvalues --    0.31004   0.31528   0.33558   0.33736   0.34556

 Mulliken charges:
               1
     1  O   -0.653228
     2  C    0.098250
     3  C   -0.030641
     4  C   -0.235651
     5  C   -0.229669
     6  C   -0.231446
     7  C   -0.228515
     8  C   -0.239080
     9  C    0.098265
    10  C   -0.030594
    11  C   -0.239097
    12  C   -0.228512
    13  C   -0.231441
    14  C   -0.229676
    15  C   -0.235670
    16  H    0.238045
    17  H    0.239257
    18  H    0.235443
    19  H    0.234010
    20  H    0.234668
    21  H    0.241933
    22  H    0.238041
    23  H    0.241932
    24  H    0.234666
    25  H    0.234010
    26  H    0.235441
    27  H    0.239259
 Sum of Mulliken charges =  -0.00000

 Dipole moment (field-independent basis, Debye):
    X=              0.0002    Y=             -1.2106    Z=              2.7123  Tot=              2.9702
 Quadrupole moment (field-independent basis, Debye-Ang):
   XX=            -83.4892   YY=            -84.4472   ZZ=            -77.3228
   XY=              0.0022   XZ=              0.0097   YZ=              8.4445

 Normal termination of Gaussian 16 at Fri Feb  2 15:13:04 2024.
